ITEM: TIMESTEP
4200
ITEM: NUMBER OF ATOMS
2
ITEM: BOX BOUNDS ff ff ff
0 0.01
0 0.01
0 0.04
ITEM: ATOMS id type mass radius x y z ix iy iz vx vy vz fx fy fz omegax omegay omegaz 
2 1 2.76344e-06 0.000833333 0.005 0.00516675 0.0315723 0 0 0 5.43804e-08 9.32886e-06 -0.00894838 1.26759e-09 1.4423e-09 -9.63088e-07 0.000197968 5.85779e-07 -1.02871e-06 
1 1 2.76344e-06 0.000833333 0.005 0.00500008 0.0349056 0 0 0 -2.84189e-07 8.6804e-06 -0.008941 2.87741e-10 8.01243e-10 -9.71181e-07 0.000230448 4.62979e-05 4.71256e-07 
