ITEM: TIMESTEP
8400
ITEM: NUMBER OF ATOMS
2
ITEM: BOX BOUNDS ff ff ff
0 0.01
0 0.01
0 0.04
ITEM: ATOMS id type mass radius x y z ix iy iz vx vy vz fx fy fz omegax omegay omegaz 
2 1 2.76344e-06 0.000833333 0.00500001 0.00516706 0.0313194 0 0 0 4.99942e-07 2.23184e-05 -0.0161512 -4.26291e-10 -3.37285e-09 -7.97416e-07 0.00402715 -2.75896e-05 -1.30937e-06 
1 1 2.76344e-06 0.000833333 0.00499999 0.00500035 0.0346532 0 0 0 -7.84513e-07 1.79739e-05 -0.0161093 -5.83488e-10 -2.9932e-09 -8.15683e-07 0.00386624 0.000204254 -1.57239e-05 
